; This file was generated using the following command:
; ./martinize2 -f 1uao_proa.charmm.pdb -o 1uao_proa.top -x 1uao_proa.cg.pdb -ff martini3001 -dssp /home/charmm-gui/local/dssp-3.1.4/mkdssp -p backbone -maxwarn 1 -mutate HSD:HIS -mutate HSP:HIH
; martinize with vermouth 0.7.3
; The following sequence of secondary structure 
; was used for the full system:
; CEETTTTEEC

; Pleas cite the following papers:
; Souza, P C T; Alessandri, R; Barnoud, J; Thallmair, S; Faustino, I; Grünewald, F; Patmanidis, I; Abdizadeh, H; Bruininks, B M H; Wassenaar, T A; Kroon, P C; Melcr, J; Nieto, V; Corradi, V; Khan, H M; Domański, J; Javanainen, M; Martinez-Seara, H; Reuter, N; Best, R B; Vattulainen, I; Monticelli, L; Periole, X; Tieleman, D P; de Vries, A H; Marrink, S J;  Nature Methods 2021; 10.1038/s41592-021-01098-3

[ moleculetype ]
PROA 1

[ atoms ]
 1 Q5    1 GLY BB   1    1     
 2 P2    2 TYR BB   2  0.0     
 3 TC4   2 TYR SC1  3  0.0     
 4 TC5   2 TYR SC2  4  0.0     
 5 TC5   2 TYR SC3  5  0.0     
 6 TN6   2 TYR SC4  6  0.0     
 7 P2    3 ASP BB   7  0.0     
 8 SQ5n  3 ASP SC1  8 -1.0     
 9 SP2a  4 PRO BB   9  0.0     
10 SC3   4 PRO SC1 10  0.0     
11 P2    5 GLU BB  11  0.0     
12 Q5n   5 GLU SC1 12 -1.0     
13 P2    6 THR BB  13  0.0     
14 SP1   6 THR SC1 14  0.0     
15 SP1   7 GLY BB  15  0.0     
16 P2    8 THR BB  16  0.0     
17 SP1   8 THR SC1 17  0.0     
18 P2    9 TRP BB  18  0.0     
19 TC4   9 TRP SC1 19  0.0 36.0
20 TN6d  9 TRP SC2 20  0.0 36.0
21 TC5   9 TRP SC3 21  0.0  0.0
22 TC5   9 TRP SC4 22  0.0 36.0
23 TC5   9 TRP SC5 23  0.0 36.0
24 Q5   10 GLY BB  24   -1     

[ bonds ]
; Backbone bonds
 1  2 1 0.350 4000
 2  7 1 0.350 4000
 7  9 1 0.350 4000
 9 11 1 0.350 4000
11 13 1 0.350 4000
13 15 1 0.350 4000
15 16 1 0.350 4000
16 18 1 0.350 4000
18 24 1 0.350 4000

; Side chain bonds
 2  3 1 0.325 5000
 7  8 1 0.352 7500
 9 10 1 0.330 7500
11 12 1 0.400 5000
18 19 1 0.315 5000

#ifdef FLEXIBLE
; Side chain bonds
 3  4 1 0.300 1000000
 3  5 1 0.300 1000000
 4  6 1 0.285 1000000
 5  6 1 0.285 1000000
 4  5 1 0.300 1000000
13 14 1 0.305 1000000
16 17 1 0.305 1000000
19 20 1 0.335 1000000
20 23 1 0.412 1000000
22 23 1 0.293 1000000
19 22 1 0.404 1000000
20 22 1 0.470 1000000
#endif

[ constraints ]
#ifndef FLEXIBLE
; Side chain bonds
 3  4 1 0.300
 3  5 1 0.300
 4  6 1 0.285
 5  6 1 0.285
 4  5 1 0.300
13 14 1 0.305
16 17 1 0.305
19 20 1 0.335
20 23 1 0.412
22 23 1 0.293
19 22 1 0.404
20 22 1 0.470
#endif

[ angles ]
; BBB angles
#ifdef NORMANG
   1    2    7 2 127 20
   2    7    9 2 100 25
   7    9   11 2 100 20
  13   15   16 2 100 20
  15   16   18 2 100 20
  16   18   24 2 127 20
   9   11   13 2 100 20
  11   13   15 2 100 20
#endif
#ifndef NORMANG
   1    2    7 10 127 20
   2    7    9 10 100 25
   7    9   11 10 100 20
  13   15   16 10 100 20
  15   16   18 10 100 20
  16   18   24 10 127 20
   9   11   13 10 100 20
  11   13   15 10 100 20
#endif

; BBS angles regular martini
 1  2  3 2 100 25
 2  7  8 2 100 25
 7  9 10 2 100 25
 9 11 12 2 100 25
11 13 14 2 100 25
15 16 17 2 100 25
16 18 19 2 100 25

; Side chain angles
 2  3  4 2 120.000 60.0
 2  3  5 2 120.000 60.0
18 19 20 2 120.000 60.0
18 19 22 2 130.000 60.0

[ dihedrals ]
 6  4  5  3 2 180.0 50.0
23 22 20 19 2 180.0 100.0

[ exclusions ]
 2  3  4  5  6 
 3  4  5  6 
 4  5  6 
 5  6 
18 19 20 21 22 23 
19 20 21 22 23 
20 21 22 23 
21 22 23 
22 23 

[ virtual_sitesn ]
21 2 23 22 20 19

