#include "toppar/martini_v3.0.0.itp"
#include "toppar/martini_v3.0.0_ions_v1.itp"
#include "toppar/martini_v3.0.0_nucleobases_v1.itp"
#include "toppar/martini_v3.0.0_phospholipids_v1.itp"
#include "toppar/martini_v3.0.0_phospholipids_v1_matthieu.itp"
#include "toppar/martini_v3.0.0_small_molecules_v1.itp"
#include "toppar/martini_v3.0.0_solvents_v1.itp"
#include "toppar/martini_v3.0.0_sugars_v1.itp"
#include "toppar/martini_v3.0_sterols_v1.0.itp"
#include "1uao_proa.itp"

[ system ]
; name
Martini system

[ molecules ]
; name        number
W 471
NA 7
CL 5
