define                   =  -DPOSRES -DPOSRES_FC=0 -DNORMANG
integrator               = steep
tinit                    = 0.0
dt                       = 0.020
nsteps                   = 3000

nstlog                   = 100
nstenergy                = 100
nstxout-compressed       = 1000
compressed-x-precision   = 100

cutoff-scheme            = Verlet
nstlist                  = 20
ns_type                  = grid
pbc                      = xyz
verlet-buffer-tolerance  = 0.005

epsilon_r                = 15
coulombtype              = reaction-field
rcoulomb                 = 1.1
vdw_type                 = cutoff
vdw-modifier             = Potential-shift-verlet
rvdw                     = 1.1

tcoupl                   = v-rescale
tc-grps                  = protein solute
tau_t                    = 1.0 1.0
ref_t                    = 450 450

; Pressure coupling:
Pcoupl                   = berendsen
Pcoupltype               = isotropic
tau_p                    = 5.0
compressibility          = 4.5e-5
ref_p                    = 1.0

; GENERATE VELOCITIES FOR STARTUP RUN:
gen_vel                  = yes
gen_temp                 = 450
gen_seed                 = 3264187631
refcoord_scaling         = all

;soft-core-minimization so that single precision GROMACS works here
; Free energy parameters
free-energy              = yes
init-lambda              = 0.01
sc-alpha                 = 4
sc-power                 = 2
sc-coul                  = yes
nstdhdl                  = 0 
couple-moltype           = system
; we are changing both the vdw and the charge. In the initial state, both are on
couple-lambda0           = vdw-q
; in the final state, both are off.
couple-lambda1           = none
couple-intramol          = yes
